+ 1.0000 288 29 cbr 210 --------- 0 288.0 289.0 0 0 89.68 -132.65 80.87 50.24
- 1.0000 288 29 cbr 210 --------- 0 288.0 289.0 0 0 89.68 -132.65 80.87 50.24
r 1.0071 288 29 cbr 210 --------- 0 288.0 289.0 0 0 89.68 -132.65 80.87 50.25
+ 1.0071 29 28 cbr 210 --------- 0 288.0 289.0 0 0 80.87 50.25 66.97 27.60
- 1.0071 29 28 cbr 210 --------- 0 288.0 289.0 0 0 80.87 50.25 66.97 27.60
r 1.0139 29 28 cbr 210 --------- 0 288.0 289.0 0 0 80.87 50.25 66.97 27.60
+ 1.0139 28 4 cbr 210 --------- 0 288.0 289.0 0 0 66.97 27.60 59.63 9.10
- 1.0139 28 4 cbr 210 --------- 0 288.0 289.0 0 0 66.97 27.60 59.63 9.10
r 1.0189 28 4 cbr 210 --------- 0 288.0 289.0 0 0 66.97 27.60 59.63 9.10
+ 1.0189 4 2 cbr 210 --------- 0 288.0 289.0 0 0 59.63 9.10 29.91 3.06
- 1.0189 4 2 cbr 210 --------- 0 288.0 289.0 0 0 59.63 9.10 29.91 3.06
r 1.0322 4 2 cbr 210 --------- 0 288.0 289.0 0 0 59.63 9.11 29.91 3.06
+ 1.0322 2 0 cbr 210 --------- 0 288.0 289.0 0 0 29.91 3.06 0.05 0.00
- 1.0322 2 0 cbr 210 --------- 0 288.0 289.0 0 0 29.91 3.06 0.05 0.00
r 1.0456 2 0 cbr 210 --------- 0 288.0 289.0 0 0 29.91 3.06 0.06 0.00
+ 1.0456 0 22 cbr 210 --------- 0 288.0 289.0 0 0 0.06 0.00 -29.80 -3.05
- 1.0456 0 22 cbr 210 --------- 0 288.0 289.0 0 0 0.06 0.00 -29.80 -3.05
r 1.0590 0 22 cbr 210 --------- 0 288.0 289.0 0 0 0.06 0.00 -29.80 -3.05
+ 1.0590 22 289 cbr 210 --------- 0 288.0 289.0 0 0 -29.80 -3.05 -30.74 -14.89
- 1.0590 22 289 cbr 210 --------- 0 288.0 289.0 0 0 -29.80 -3.05 -30.74 -14.89
r 1.0664 22 289 cbr 210 --------- 0 288.0 289.0 0 0 -29.80 -3.05 -30.74 -14.89
+ 3.0000 288 132 cbr 210 --------- 0 288.0 289.0 1 1 -3.76 -101.17 -7.63 -104.30
- 3.0000 288 132 cbr 210 --------- 0 288.0 289.0 1 1 -3.76 -101.17 -7.63 -104.30
r 3.0061 288 132 cbr 210 --------- 0 288.0 289.0 1 1 -3.76 -101.17 -7.63 -104.30
+ 3.0061 132 130 cbr 210 --------- 0 288.0 289.0 1 1 -7.63 -104.30 22.24 -107.19
- 3.0061 132 130 cbr 210 --------- 0 288.0 289.0 1 1 -7.63 -104.30 22.24 -107.19
r 3.0195 132 130 cbr 210 --------- 0 288.0 289.0 1 1 -7.63 -104.30 22.24 -107.19
+ 3.0195 130 128 cbr 210 --------- 0 288.0 289.0 1 1 22.24 -107.19 52.02 -111.84
- 3.0195 130 128 cbr 210 --------- 0 288.0 289.0 1 1 22.24 -107.19 52.02 -111.84
r 3.0329 130 128 cbr 210 --------- 0 288.0 289.0 1 1 22.24 -107.19 52.02 -111.84
+ 3.0329 128 104 cbr 210 --------- 0 288.0 289.0 1 1 52.02 -111.84 59.42 -129.04
- 3.0329 128 104 cbr 210 --------- 0 288.0 289.0 1 1 52.02 -111.84 59.42 -129.04
r 3.0384 128 104 cbr 210 --------- 0 288.0 289.0 1 1 52.02 -111.84 59.42 -129.04
+ 3.0384 104 56 cbr 210 --------- 0 288.0 289.0 1 1 59.42 -129.04 59.42 -159.04
- 3.0384 104 56 cbr 210 --------- 0 288.0 289.0 1 1 59.42 -129.04 59.42 -159.04
r 3.0452 104 56 cbr 210 --------- 0 288.0 289.0 1 1 59.42 -129.04 59.42 -159.04
+ 3.0452 56 55 cbr 210 --------- 0 288.0 289.0 1 1 59.42 -159.04 73.96 -168.84
- 3.0452 56 55 cbr 210 --------- 0 288.0 289.0 1 1 59.42 -159.04 73.96 -168.84
r 3.0520 56 55 cbr 210 --------- 0 288.0 289.0 1 1 59.42 -159.04 73.96 -168.84
+ 3.0520 55 53 cbr 210 --------- 0 288.0 289.0 1 1 73.96 -168.84 74.26 49.21
- 3.0520 55 53 cbr 210 --------- 0 288.0 289.0 1 1 73.96 -168.84 74.26 49.21
r 3.0654 55 53 cbr 210 --------- 0 288.0 289.0 1 1 73.96 -168.84 74.26 49.21
+ 3.0654 53 289 cbr 210 --------- 0 288.0 289.0 1 1 74.26 49.21 64.95 64.39
- 3.0654 53 289 cbr 210 --------- 0 288.0 289.0 1 1 74.26 49.21 64.95 64.39
r 3.0728 53 289 cbr 210 --------- 0 288.0 289.0 1 1 74.26 49.21 64.95 64.39
+ 5.0000 288 263 cbr 210 --------- 0 288.0 289.0 2 2 -21.01 156.49 -14.67 148.59
- 5.0000 288 263 cbr 210 --------- 0 288.0 289.0 2 2 -21.01 156.49 -14.67 148.59
r 5.0072 288 263 cbr 210 --------- 0 288.0 289.0 2 2 -21.01 156.49 -14.67 148.59
+ 5.0072 263 215 cbr 210 --------- 0 288.0 289.0 2 2 -14.67 148.59 -14.67 118.59
- 5.0072 263 215 cbr 210 --------- 0 288.0 289.0 2 2 -14.67 148.59 -14.67 118.59
r 5.0202 263 215 cbr 210 --------- 0 288.0 289.0 2 2 -14.67 148.59 -14.67 118.59
+ 5.0202 215 167 cbr 210 --------- 0 288.0 289.0 2 2 -14.67 118.59 -14.67 88.59
- 5.0202 215 167 cbr 210 --------- 0 288.0 289.0 2 2 -14.67 118.59 -14.67 88.59
r 5.0331 215 167 cbr 210 --------- 0 288.0 289.0 2 2 -14.67 118.59 -14.67 88.59
+ 5.0331 167 119 cbr 210 --------- 0 288.0 289.0 2 2 -14.67 88.59 -14.67 58.59
- 5.0331 167 119 cbr 210 --------- 0 288.0 289.0 2 2 -14.67 88.59 -14.67 58.59
r 5.0461 167 119 cbr 210 --------- 0 288.0 289.0 2 2 -14.67 88.59 -14.67 58.59
+ 5.0461 119 71 cbr 210 --------- 0 288.0 289.0 2 2 -14.67 58.59 -14.67 28.59
- 5.0461 119 71 cbr 210 --------- 0 288.0 289.0 2 2 -14.67 58.59 -14.67 28.59
r 5.0591 119 71 cbr 210 --------- 0 288.0 289.0 2 2 -14.67 58.59 -14.67 28.59
+ 5.0591 71 47 cbr 210 --------- 0 288.0 289.0 2 2 -14.67 28.59 -7.20 14.31
- 5.0591 71 47 cbr 210 --------- 0 288.0 289.0 2 2 -14.67 28.59 -7.20 14.31
r 5.0662 71 47 cbr 210 --------- 0 288.0 289.0 2 2 -14.67 28.59 -7.20 14.31
+ 5.0662 47 24 cbr 210 --------- 0 288.0 289.0 2 2 -7.20 14.31 7.74 15.70
- 5.0662 47 24 cbr 210 --------- 0 288.0 289.0 2 2 -7.20 14.31 7.74 15.70
r 5.0730 47 24 cbr 210 --------- 0 288.0 289.0 2 2 -7.20 14.31 7.74 15.70
+ 5.0730 24 289 cbr 210 --------- 0 288.0 289.0 2 2 7.74 15.70 13.47 6.99
- 5.0730 24 289 cbr 210 --------- 0 288.0 289.0 2 2 7.74 15.70 13.47 6.99
r 5.0803 24 289 cbr 210 --------- 0 288.0 289.0 2 2 7.74 15.70 13.47 6.99
+ 7.0000 288 15 cbr 210 --------- 0 288.0 289.0 3 3 -41.45 -167.55 -45.12 -174.68
- 7.0000 288 15 cbr 210 --------- 0 288.0 289.0 3 3 -41.45 -167.55 -45.12 -174.68
r 7.0064 288 15 cbr 210 --------- 0 288.0 289.0 3 3 -41.45 -167.55 -45.12 -174.68
+ 7.0064 15 14 cbr 210 --------- 0 288.0 289.0 3 3 -45.12 -174.68 -30.23 -176.93
- 7.0064 15 14 cbr 210 --------- 0 288.0 289.0 3 3 -45.12 -174.68 -30.23 -176.93
r 7.0132 15 14 cbr 210 --------- 0 288.0 289.0 3 3 -45.12 -174.68 -30.23 -176.93
+ 7.0132 14 12 cbr 210 --------- 0 288.0 289.0 3 3 -30.23 -176.93 -0.37 -179.99
- 7.0132 14 12 cbr 210 --------- 0 288.0 289.0 3 3 -30.23 -176.93 -0.37 -179.99
r 7.0266 14 12 cbr 210 --------- 0 288.0 289.0 3 3 -30.23 -176.93 -0.37 -179.99
+ 7.0266 12 10 cbr 210 --------- 0 288.0 289.0 3 3 -0.37 -179.99 29.49 176.96
- 7.0266 12 10 cbr 210 --------- 0 288.0 289.0 3 3 -0.37 -179.99 29.49 176.96
r 7.0399 12 10 cbr 210 --------- 0 288.0 289.0 3 3 -0.37 -179.99 29.49 176.96
+ 7.0399 10 8 cbr 210 --------- 0 288.0 289.0 3 3 29.49 176.96 59.21 171.01
- 7.0399 10 8 cbr 210 --------- 0 288.0 289.0 3 3 29.49 176.96 59.21 171.01
r 7.0533 10 8 cbr 210 --------- 0 288.0 289.0 3 3 29.49 176.96 59.21 171.01
+ 7.0533 8 6 cbr 210 --------- 0 288.0 289.0 3 3 59.21 171.01 84.69 94.01
- 7.0533 8 6 cbr 210 --------- 0 288.0 289.0 3 3 59.21 171.01 84.69 94.01
r 7.0667 8 6 cbr 210 --------- 0 288.0 289.0 3 3 59.21 171.01 84.69 94.02
+ 7.0667 6 4 cbr 210 --------- 0 288.0 289.0 3 3 84.69 94.02 59.95 9.20
- 7.0667 6 4 cbr 210 --------- 0 288.0 289.0 3 3 84.69 94.02 59.95 9.20
r 7.0801 6 4 cbr 210 --------- 0 288.0 289.0 3 3 84.69 94.03 59.95 9.20
+ 7.0801 4 289 cbr 210 --------- 0 288.0 289.0 3 3 59.95 9.20 63.26 10.69
- 7.0801 4 289 cbr 210 --------- 0 288.0 289.0 3 3 59.95 9.20 63.26 10.69
r 7.0861 4 289 cbr 210 --------- 0 288.0 289.0 3 3 59.95 9.20 63.26 10.69
+ 9.0000 288 14 cbr 210 --------- 0 288.0 289.0 4 4 -20.02 -177.23 -30.33 -176.93
- 9.0000 288 14 cbr 210 --------- 0 288.0 289.0 4 4 -20.02 -177.23 -30.33 -176.93
r 9.0074 288 14 cbr 210 --------- 0 288.0 289.0 4 4 -20.02 -177.23 -30.33 -176.93
+ 9.0074 14 62 cbr 210 --------- 0 288.0 289.0 4 4 -30.33 -176.93 -30.33 -146.93
- 9.0074 14 62 cbr 210 --------- 0 288.0 289.0 4 4 -30.33 -176.93 -30.33 -146.93
r 9.0189 14 62 cbr 210 --------- 0 288.0 289.0 4 4 -30.33 -176.93 -30.33 -146.93
+ 9.0189 62 61 cbr 210 --------- 0 288.0 289.0 4 4 -30.33 -146.93 -15.41 -148.57
- 9.0189 62 61 cbr 210 --------- 0 288.0 289.0 4 4 -30.33 -146.93 -15.41 -148.57
r 9.0257 62 61 cbr 210 --------- 0 288.0 289.0 4 4 -30.33 -146.93 -15.41 -148.57
+ 9.0257 61 59 cbr 210 --------- 0 288.0 289.0 4 4 -15.41 -148.57 14.46 -151.41
- 9.0257 61 59 cbr 210 --------- 0 288.0 289.0 4 4 -15.41 -148.57 14.46 -151.41
r 9.0391 61 59 cbr 210 --------- 0 288.0 289.0 4 4 -15.41 -148.57 14.46 -151.41
+ 9.0391 59 289 cbr 210 --------- 0 288.0 289.0 4 4 14.46 -151.41 13.48 -155.94
- 9.0391 59 289 cbr 210 --------- 0 288.0 289.0 4 4 14.46 -151.41 13.48 -155.94
r 9.0451 59 289 cbr 210 --------- 0 288.0 289.0 4 4 14.46 -151.41 13.48 -155.94
